Program Version,EnergyPlus, Version 9.1.0-08d2e308bb, YMD=2020.04.15 16:05
1,5,Environment Title[],Latitude[deg],Longitude[deg],Time Zone[],Elevation[m]
2,8,Day of Simulation[],Month[],Day of Month[],DST Indicator[1=yes 0=no],Hour[],StartMinute[],EndMinute[],DayType
3,5,Cumulative Day of Simulation[],Month[],Day of Month[],DST Indicator[1=yes 0=no],DayType  ! When Daily Meters Requested
4,2,Cumulative Days of Simulation[],Month[]  ! When Monthly Meters Requested
5,1,Cumulative Days of Simulation[] ! When Run Period Meters Requested
6,1,Calendar Year of Simulation[] ! When Annual Meters Requested
23,1,Electricity:Building [J] !TimeStep
2340,1,Cooling:Electricity [J] !TimeStep
2683,1,Pumps:Electricity [J] !TimeStep
2308,1,Fans:Electricity [J] !TimeStep
11,1,Electricity:Facility [J] !TimeStep
2296,1,Electricity:HVAC [J] !TimeStep
2496,1,Electricity:Plant [J] !TimeStep
895,1,Gas:Facility [J] !TimeStep
897,7,Gas:Facility [J] !Daily [Value,Min,Hour,Minute,Max,Hour,Minute]
13,7,Electricity:Facility [J] !Daily [Value,Min,Hour,Minute,Max,Hour,Minute]
End of Data Dictionary
1,RUN PERIOD 1,  43.62,-116.21,  -7.00, 701.00
2,1, 1, 1, 0, 1, 0.00,10.00,Sunday
11,428243634.73055639
23,362849689.5260782
895,88372495.76974389
2296,33225711.480851529
2308,31979028.49723285
2340,1649041.435717081
2496,13981603.723626623
2683,13474495.143964712
2,1, 1, 1, 0, 1,10.00,20.00,Sunday
11,433694576.6789013
23,362849689.5260782
895,79855473.13781719
2296,38713151.206120457
2308,37466506.16707842
2340,1649424.1775365067
2496,13945105.946702563
2683,13439366.742682819
2,1, 1, 1, 0, 1,20.00,30.00,Sunday
11,433682274.35180428
23,362849689.5260782
895,84024289.3760474
2296,38703485.39962925
2308,37456745.35652065
2340,1648611.7042059194
2496,13942469.426096738
2683,13439301.786261494
2,1, 1, 1, 0, 1,30.00,40.00,Sunday
11,420630253.5332973
23,362849689.5260782
895,12259391.206102152
2296,25761615.279852287
2308,24515737.16590231
2340,1647776.4774337302
2496,13832318.72736676
2683,13330742.94466347
2,1, 1, 1, 0, 1,40.00,50.00,Sunday
11,432671751.67085459
23,362849689.5260782
895,153555464.20074404
2296,37558832.23779059
2308,36315385.67102368
2340,1645602.219468597
2496,14076599.90698579
2683,13576003.064550339
2,1, 1, 1, 0, 1,50.00,60.00,Sunday
11,433744912.2996028
23,362849689.5260782
895,111447060.98799296
2296,38723233.29709727
2308,37480903.94572123
2340,1644588.5410278342
2496,13985359.476427259
2683,13485750.327527062
2,1, 1, 1, 0, 2, 0.00,10.00,Sunday
11,433714184.46860769
23,362849689.5260782
895,106113008.26284826
2296,38708091.46362771
2308,37465744.5057393
2340,1645255.6556934729
2496,13969773.478901755
2683,13469407.022473192
2,1, 1, 1, 0, 2,10.00,20.00,Sunday
11,422006585.5587792
23,362849689.5260782
895,12259391.206102152
2296,27139414.77831793
2308,25898318.46874473
2340,1643718.564783259
2496,13830851.254383035
2683,13330742.94466347
2,1, 1, 1, 0, 2,20.00,30.00,Sunday
11,432674364.7671143
23,362849689.5260782
895,159500527.614082
2296,37558313.33414215
2308,36320670.64235182
2340,1639924.1585347346
2496,14079731.906893952
2683,13580080.891454367
2,1, 1, 1, 0, 2,30.00,40.00,Sunday
11,432341246.32273927
23,362849689.5260782
895,106892751.05651497
2296,37330223.5482305
2308,36095785.748447459
2340,1637439.3354939763
2496,13974703.248430599
2683,13474445.607410867
2,1, 1, 1, 0, 2,40.00,50.00,Sunday
11,433681265.3297818
23,362849689.5260782
895,94335096.92644589
2296,38697080.54518751
2308,37462774.39498685
2340,1637072.6877021203
2496,13947865.25851604
2683,13447761.420562135
2,1, 1, 1, 0, 2,50.00,60.00,Sunday
11,422000421.8910019
23,362849689.5260782
895,12259391.206102152
2296,27133709.080188127
2308,25898318.46874473
2340,1637525.9516440167
2496,13830393.284735518
2683,13330742.944663469
2,1, 1, 1, 0, 3, 0.00,10.00,Sunday
11,434403270.1627357
23,362849689.5260782
895,201478177.99042288
2296,39185856.92722408
2308,37951920.79494782
2340,1635987.3129718467
2496,14181093.70943329
2683,13681684.372320097
2,1, 1, 1, 0, 3,10.00,20.00,Sunday
11,432314340.3296767
23,362849689.5260782
895,87478690.45094732
2296,37327636.84107005
2308,36096443.68388797
2340,1632546.5004039687
2496,13950383.962528443
2683,13451930.729891712
2,1, 1, 1, 0, 3,20.00,30.00,Sunday
11,433200801.98194077
23,362849689.5260782
895,75668888.16290936
2296,38240088.3948107
2308,37010453.759586218
2340,1631918.8707861975
2496,13924394.061051757
2683,13425207.546897589
2,1, 1, 1, 0, 3,30.00,40.00,Sunday
11,421994616.99288228
23,362849689.5260782
895,12259391.206102152
2296,27128421.276009539
2308,25898318.46874473
2340,1632394.8295568857
2496,13829876.190794483
2683,13330742.944663469
2,1, 1, 1, 0, 3,40.00,50.00,Sunday
11,434213279.7562406
23,362849689.5260782
895,156349810.86802877
2296,39075032.49483155
2308,37845587.63303885
2340,1632280.9719365382
2496,14101927.735330869
2683,13602362.701583837
2,1, 1, 1, 0, 3,50.00,60.00,Sunday
11,432247180.5335858
23,362849689.5260782
895,63017268.974260989
2296,37302036.75819013
2308,36074164.053678248
2340,1629537.0724510877
2496,13908824.249317509
2683,13410611.350463637
2,1, 1, 1, 0, 4, 0.00,10.00,Sunday
11,433640361.6799171
23,362849689.5260782
895,72573905.02506007
2296,38683874.23533267
2308,37456745.35652065
2340,1629897.9498748459
2496,13920167.918506235
2683,13420813.346710086
2,1, 1, 1, 0, 4,10.00,20.00,Sunday
11,421992584.6668808
23,362849689.5260782
895,12259391.206102152
2296,27125971.45547416
2308,25898318.46874473
2340,1630493.9040283217
2496,13830293.685328346
2683,13330742.944663469
2,1, 1, 1, 0, 4,20.00,30.00,Sunday
11,434259521.6920894
23,362849689.5260782
895,173023658.9314015
2296,39087613.96879696
2308,37861469.34808883
2340,1627829.2836581744
2496,14135588.197214215
2683,13637183.52137411
2,1, 1, 1, 0, 4,30.00,40.00,Sunday
11,432302450.2085837
23,362849689.5260782
895,85724565.72167215
2296,37317243.120552267
2308,36093465.78476486
2340,1626433.1194102262
2496,13948887.561953228
2683,13449571.604865537
2,1, 1, 1, 0, 4,40.00,50.00,Sunday
11,433205722.37563857
23,362849689.5260782
895,89429777.14300116
2296,38222491.031749349
2308,37000021.58040443
2340,1625255.7781924457
2496,13946911.817810972
2683,13447467.468285842
2,1, 1, 1, 0, 4,50.00,60.00,Sunday
11,421986509.2220524
23,362849689.5260782
895,12259391.206102152
2296,27121287.637343784
2308,25898318.46874473
2340,1624348.589199638
2496,13828902.058630424
2683,13330742.94466347
2,1, 1, 1, 0, 5, 0.00,10.00,Sunday
11,434019366.90569189
23,362849689.5260782
895,163606777.58208884
2296,38903904.13796071
2308,37681867.289661597
2340,1624347.4003861277
2496,14079143.241652893
2683,13580074.050373408
2,1, 1, 1, 0, 5,10.00,20.00,Sunday
11,432333148.91377076
23,362849689.5260782
895,117895983.31724692
2296,37315113.96054834
2308,36095289.250070739
2340,1622876.345671994
2496,13981715.427144157
2683,13482017.978440585
2,1, 1, 1, 0, 5,20.00,30.00,Sunday
11,432753210.6609431
23,362849689.5260782
895,109532492.56069277
2296,37756925.46374965
2308,36538240.338673088
2340,1621522.0503515984
2496,13959965.671115224
2683,13460543.1289288
2,1, 1, 1, 0, 5,30.00,40.00,Sunday
11,421984536.45938399
23,362849689.5260782
895,19630833.887420834
2296,27118015.800919497
2308,25898318.46874473
2340,1622486.2311590466
2496,13830201.132386249
2683,13330742.94466347
2,1, 1, 1, 0, 5,40.00,50.00,Sunday
11,434037803.91235056
23,362849689.5260782
895,175941730.0846173
2296,38908707.69011568
2308,37688929.9766382
2340,1621808.6044941405
2496,14092776.696156621
2683,13594028.405777323
2,1, 1, 1, 0, 5,50.00,60.00,Sunday
11,432338417.1218505
23,362849689.5260782
895,124318560.1478489
2296,37314645.4048644
2308,36096553.47787839
2340,1619956.5938740974
2496,13987452.190907799
2683,13488941.982177968
2,1, 1, 1, 0, 6, 0.00,10.00,Sunday
11,432758418.881263
23,362849689.5260782
895,129893623.68860261
2296,37756327.99467918
2308,36539267.27291617
2340,1619345.775842069
2496,13965771.3605056
2683,13466787.33991264
2,1, 1, 1, 0, 6,10.00,20.00,Sunday
11,421982201.86990198
23,362849689.5260782
895,34373719.25005819
2296,27116379.931233538
2308,25898318.46874473
2340,1619934.4267621083
2496,13829502.412590223
2683,13330742.94466347
2,1, 1, 1, 0, 6,20.00,30.00,Sunday
11,434070168.3387858
23,362849689.5260782
895,202450469.7412343
2296,38921666.90232946
2308,37703641.01215125
2340,1618987.2422397054
2496,14112181.910378088
2683,13614188.735352502
2,1, 1, 1, 0, 6,30.00,40.00,Sunday
11,432351225.3745992
23,362849689.5260782
895,145630958.35658098
2296,37315279.86098876
2308,36099128.87035173
2340,1618780.943204817
2496,13999625.987532178
2683,13499943.858386219
2,1, 1, 1, 0, 6,40.00,50.00,Sunday
11,432765409.7875845
23,362849689.5260782
895,135496793.9396072
2296,37755662.236312139
2308,36540635.669331807
2340,1615649.0780745524
2496,13973428.025194202
2683,13475705.493733379
2,1, 1, 1, 0, 6,50.00,60.00,Sunday
11,421980042.028503
23,362849689.5260782
895,34373719.25005819
2296,27114302.66958336
2308,25898318.46874473
2340,1617374.9810526416
2496,13829419.83284142
2683,13330742.94466347
2,1, 1, 1, 0, 7, 0.00,10.00,Sunday
11,449682388.57917657
23,362849689.5260782
895,247705183.91036589
2296,38929330.75522551
2308,37713382.85781303
2340,1619038.9622120993
2496,14134948.29787285
2683,13634454.70971206
2,1, 1, 1, 0, 7,10.00,20.00,Sunday
11,447929628.2182484
23,362849689.5260782
895,168127134.399741
2296,37310593.905132647
2308,36096479.81200872
2340,1616582.4165880245
2496,14000924.787037554
2683,13501022.606861843
2,1, 1, 1, 0, 7,20.00,30.00,Sunday
11,448341186.59352639
23,362849689.5260782
895,166732267.36114807
2296,37752669.854222249
2308,36539450.76490556
2340,1615457.3246815259
2496,13970407.213225976
2683,13470655.675685587
2,1, 1, 1, 0, 7,30.00,40.00,Sunday
11,437573889.72035488
23,362849689.5260782
895,63859489.97533291
2296,27112865.58978496
2308,25898318.46874473
2340,1617167.9186774197
2496,13842914.604491624
2683,13342551.644853387
2,1, 1, 1, 0, 7,40.00,50.00,Sunday
11,450154035.29488447
23,362849689.5260782
895,280259009.0996024
2296,39282275.1803678
2308,38067268.43343492
2340,1617684.4546916343
2496,14253650.588438413
2683,13753032.238100414
2,1, 1, 1, 0, 7,50.00,60.00,Sunday
11,447903761.35768279
23,362849689.5260782
895,156567078.19315858
2296,37310237.267739977
2308,36096525.79052241
2340,1616417.1951869615
2496,13975414.563864617
2683,13474689.750613
2,1, 1, 1, 0, 8, 0.00,10.00,Sunday
11,448793330.3692038
23,362849689.5260782
895,156253834.62926955
2296,38213507.7859426
2308,37000610.082140568
2340,1615656.4489987365
2496,13961713.05718299
2683,13460804.358933038
2,1, 1, 1, 0, 8,10.00,20.00,Sunday
11,437573456.2575254
23,362849689.5260782
895,78602375.33797027
2296,27112143.97506663
2308,25898318.46874473
2340,1616078.0993383225
2496,13843202.756380545
2683,13342551.644853387
2,1, 1, 1, 0, 8,20.00,30.00,Sunday
11,450165395.91805067
23,362849689.5260782
895,295322388.5676711
2296,39286551.03502688
2308,38073280.967307198
2340,1615343.466929431
2496,14260735.3569455
2683,13760088.731126905
2,1, 1, 1, 0, 8,30.00,40.00,Sunday
11,447921957.04543247
23,362849689.5260782
895,168035906.11823739
2296,37311350.48329285
2308,36099994.018709767
2340,1614273.9724833877
2496,13992497.03606149
2683,13490929.45849687
2,1, 1, 1, 0, 8,40.00,50.00,Sunday
11,448342383.4011854
23,362849689.5260782
895,163581181.5552445
2296,37746396.73191383
2308,36536075.43707852
2340,1613155.296097876
2496,13977877.14319346
2683,13476273.62996329
2,1, 1, 1, 0, 8,50.00,60.00,Sunday
11,437572614.2966724
23,362849689.5260782
895,78602375.33797027
2296,27109730.493857799
2308,25898318.46874473
2340,1614598.345733875
2496,13844774.276736305
2683,13342551.644853389
2,1, 1, 1, 0, 9, 0.00,10.00,Sunday
11,449634510.97588977
23,362849689.5260782
895,233862884.34566639
2296,38895333.96524813
2308,37683655.95668642
2340,1614543.6576046907
2496,14121067.484563427
2683,13618975.488103563
2,1, 1, 1, 0, 9,10.00,20.00,Sunday
11,447929943.7469235
23,362849689.5260782
895,190799131.0664568
2296,37305406.16163026
2308,36095214.58027209
2340,1613168.1972377229
2496,14006428.059215077
2683,13504155.657207765
2,1, 1, 1, 0, 9,20.00,30.00,Sunday
11,414573697.86696478
23,362849689.5260782
895,169464525.9812101
2296,37748140.35706217
2308,36538575.45484002
2340,1610287.3723799142
2496,13975867.983824423
2683,13475743.897548929
2,1, 1, 1, 0, 9,30.00,40.00,Sunday
11,403804298.6414932
23,362849689.5260782
895,78602375.33797027
2296,27109669.534461749
2308,25898318.46874473
2340,1614067.5113716289
2496,13844939.580953278
2683,13342551.644853387
2,1, 1, 1, 0, 9,40.00,50.00,Sunday
11,415865607.80787798
23,362387927.8821196
895,283879280.40833
2296,39237337.355178188
2308,38024685.67394428
2340,1614854.3675792004
2496,14240342.570580207
2683,13738203.984606203
2,1, 1, 1, 0, 9,50.00,60.00,Sunday
11,413312807.2667983
23,362073320.9870403
895,157041282.6394428
2296,37287044.09580107
2308,36074437.84515239
2340,1614223.2291657567
2496,13952442.18395705
2683,13450718.84314734
2,1, 1, 1, 0,10, 0.00,10.00,Sunday
11,413973466.3158532
23,361695283.89048328
895,110785535.9177737
2296,38350344.44572756
2308,37136946.645628947
2340,1615503.7823098084
2496,13927837.979642349
2683,13424736.015318165
2,1, 1, 1, 0,10,10.00,20.00,Sunday
11,402655536.0053724
23,361695283.89048328
895,56488047.29401423
2296,27114523.887514555
2308,25898318.46874473
2340,1617324.7257918446
2496,13845728.22737459
2683,13342551.644853387
2,1, 1, 1, 0,10,20.00,30.00,Sunday
11,414457744.1223304
23,361483644.5355591
895,156140243.88356836
2296,38950905.133282247
2308,37733167.678856518
2340,1619530.4436661048
2496,14023194.45348911
2683,13518307.709604774
2,1, 1, 1, 0,10,30.00,40.00,Sunday
11,412657678.47675189
23,361464404.5942024
895,99329666.11697927
2296,37297751.22303892
2308,36078960.780733328
2340,1621107.8910329969
2496,13895522.6595106
2683,13389080.011089659
2,1, 1, 1, 0,10,40.00,50.00,Sunday
11,414036988.65928009
23,361464404.5942024
895,86705715.57100602
2296,38677919.83086427
2308,37456745.35652065
2340,1623062.1499317554
2496,13894664.234213388
2683,13387492.868100744
2,1, 1, 1, 0,10,50.00,60.00,Sunday
11,402440366.64215806
23,361464404.5942024
895,56488047.29401423
2296,27124078.449893509
2308,25898318.46874473
2340,1628435.7843623616
2496,13851883.598062143
2683,13342551.644853387
2,1, 1, 1, 0,11, 0.00,10.00,Sunday
11,407402281.517914
23,361464404.5942024
895,83930106.38466557
2296,31993064.70890076
2308,30763230.31006901
2340,1632796.8304262502
2496,13944812.214810934
2683,13431892.794867395
2,1, 1, 1, 0,11,10.00,20.00,Sunday
11,412698946.3702066
23,361464404.5942024
895,82612022.35903359
2296,37307359.639403808
2308,36074164.053678248
2340,1636311.3990897416
2496,13927182.136600452
2683,13410551.474675497
2,1, 1, 1, 0,11,20.00,30.00,Sunday
11,414066419.18295469
23,361464404.5942024
895,58057011.90578554
2296,38693387.10113763
2308,37456745.35652065
2340,1639020.7962833164
2496,13908627.48761468
2683,13388876.240845224
2,1, 1, 1, 0,11,30.00,40.00,Sunday
11,402469135.0049849
23,361464404.5942024
895,27002276.56873951
2296,27139579.998471604
2308,25898318.46874473
2340,1642380.192670552
2496,13865150.41231088
2683,13342551.644853387
2,1, 1, 1, 0,11,40.00,50.00,Sunday
11,414153075.402938
23,361464404.5942024
895,86156188.70791334
2296,38727108.943850409
2308,37482964.4789784
2340,1646119.9211428138
2496,13961561.864885278
2683,13434572.320917469
2,1, 1, 1, 0,11,50.00,60.00,Sunday
11,412713672.9757209
23,361464404.5942024
895,76602648.80560965
2296,37321253.29272875
2308,36074906.539471808
2340,1648626.122445792
2496,13928015.08878984
2683,13397040.469438492
2,1, 1, 1, 0,12, 0.00,10.00,Sunday
11,414087113.4752879
23,361464404.5942024
895,61399121.52988741
2296,38706243.24466134
2308,37456745.35652065
2340,1649917.2235114095
2496,13916465.636424218
2683,13391124.756103574
2,1, 1, 1, 0,12,10.00,20.00,Sunday
11,402482867.86048749
23,361464404.5942024
895,27002276.56873951
2296,27152497.024446098
2308,25898318.46874473
2340,1656207.4976168506
2496,13865966.241839
2683,13342551.644853387
2,1, 1, 1, 0,12,20.00,30.00,Sunday
11,414139988.5023042
23,361464404.5942024
895,91184733.71285126
2296,38738045.20384898
2308,37481191.91474649
2340,1659582.1304898137
2496,13937538.704252862
2683,13417346.554780603
2,1, 1, 1, 0,12,30.00,40.00,Sunday
11,412698297.07851538
23,361464404.5942024
895,57907663.64641976
2296,37332467.29341659
2308,36074164.053678248
2340,1660976.7655033624
2496,13901425.19089643
2683,13385108.742923426
2,1, 1, 1, 0,12,40.00,50.00,Sunday
11,414071764.4445634
23,361464404.5942024
895,53477360.42515914
2296,38717019.82988383
2308,37456745.35652065
2340,1662278.8561900994
2496,13890340.020477212
2683,13378058.665198416
2,1, 1, 1, 0,12,50.00,60.00,Sunday
11,402477897.02927729
23,361464404.5942024
895,39526167.04997607
2296,27161833.971299516
2308,25898318.46874473
2340,1665252.7973233094
2496,13851658.463775382
2683,13342551.644853387
2,1, 1, 1, 0,13, 0.00,10.00,Sunday
11,414219183.6470695
23,361464404.5942024
895,85178969.17311213
2296,38814517.48925732
2308,37549278.37289831
2340,1667892.1266068039
2496,13940261.56360984
2683,13428607.415257113
2,1, 1, 1, 0,13,10.00,20.00,Sunday
11,412687527.20442929
23,361464404.5942024
895,46868248.034556109
2296,37340539.47091211
2308,36074164.053678248
2340,1668409.9547222413
2496,13882583.139314762
2683,13369871.969101204
2,1, 1, 1, 0,13,20.00,30.00,Sunday
11,414073785.30700716
23,361464404.5942024
895,58322520.57473031
2296,38727140.066560897
2308,37458699.09384537
2340,1670273.5987801045
2496,13882240.646243863
2683,13367884.174813755
2,1, 1, 1, 0,13,30.00,40.00,Sunday
11,402493095.159921
23,361464404.5942024
895,27002276.56873951
2296,27170604.76111047
2308,25898318.46874473
2340,1673183.4013294194
2496,13858085.804608096
2683,13342551.644853387
2,1, 1, 1, 0,13,40.00,50.00,Sunday
11,403920644.9983546
23,361464404.5942024
895,43682643.510810907
2296,28573217.81185273
2308,27298097.772247498
2340,1676171.468228423
2496,13883022.592299406
2683,13365135.685174769
2,1, 1, 1, 0,13,50.00,60.00,Sunday
11,402522959.103887
23,361464404.5942024
895,49083832.84335126
2296,27180829.664884345
2308,25902751.687451789
2340,1681233.3243916364
2496,13877724.84480032
2683,13355383.791263659
2,1, 1, 1, 0,14, 0.00,10.00,Sunday
11,404346309.0588932
23,361464404.5942024
895,35310586.854097377
2296,29004276.754649249
2308,27722199.12985422
2340,1684888.4785061093
2496,13877627.71004161
2683,13353817.045986815
2,1, 1, 1, 0,14,10.00,20.00,Sunday
11,402709763.44088229
23,361464404.5942024
895,39999989.57191886
2296,27377239.788297625
2308,26089066.72338228
2340,1690761.8249734468
2496,13868119.058382273
2683,13342551.644853387
2,1, 1, 1, 0,14,20.00,30.00,Sunday
11,404176483.99108669
23,361464404.5942024
895,37227458.485379878
2296,28829239.63795122
2308,27535716.081873534
2340,1694885.564415092
2496,13882839.75893312
2683,13356537.344052498
2,1, 1, 1, 0,14,30.00,40.00,Sunday
11,402546480.4068424
23,361464404.5942024
895,44875420.45213469
2296,27203107.510949416
2308,25902751.687451789
2340,1703238.7766108104
2496,13878968.3016907
2683,13349151.24980872
2,1, 1, 1, 0,14,40.00,50.00,Sunday
11,404395098.4460484
23,361464404.5942024
895,30605536.507587658
2296,29052156.66202726
2308,27742969.287553569
2340,1711299.889248807
2496,13878537.189818824
2683,13347464.241420426
2,1, 1, 1, 0,14,50.00,60.00,Sunday
11,403000830.6462892
23,361464404.5942024
895,40020043.72275248
2296,27660687.634393615
2308,26340328.338547015
2340,1722304.363958627
2496,13875738.417693239
2683,13342551.644853387
2,1, 1, 1, 0,15, 0.00,10.00,Sunday
11,404317989.89831158
23,361464404.5942024
895,32447896.89010752
2296,28970681.974960016
2308,27640893.921497056
2340,1730050.4606739036
2496,13882903.329149217
2683,13349998.235363795
2,1, 1, 1, 0,15,10.00,20.00,Sunday
11,402587507.66252627
23,361464404.5942024
895,28736482.88615488
2296,27241320.45332432
2308,25902751.687451789
2340,1741456.3194654966
2496,13881782.6149996
2683,13344916.956211215
2,1, 1, 1, 0,15,20.00,30.00,Sunday
11,404448364.6230891
23,361464404.5942024
895,40859565.678828049
2296,29101826.62477112
2308,27753905.8844325
2340,1750434.916041519
2496,13882133.40411561
2683,13344248.148623007
2,1, 1, 1, 0,15,30.00,40.00,Sunday
11,402884329.355179
23,361464404.5942024
895,27002276.56873951
2296,27539078.61173866
2308,26180137.00033134
2340,1760304.2330597838
2496,13880846.149237976
2683,13342551.644853387
2,1, 1, 1, 0,15,40.00,50.00,Sunday
11,402938141.9505998
23,361464404.5942024
895,27002276.56873951
2296,27591034.562023745
2308,26223167.972751377
2340,1769668.1979005854
2496,13882702.794373654
2683,13342551.644853387
2,1, 1, 1, 0,15,50.00,60.00,Sunday
11,402641367.0856444
23,361464404.5942024
895,43705622.39628405
2296,27286228.934645647
2308,25909964.825459519
2340,1779130.389052966
2496,13890733.556796456
2683,13348158.998775103
2,1, 1, 1, 0,16, 0.00,10.00,Sunday
11,404601522.1988482
23,361464404.5942024
895,28292283.58374406
2296,29249618.383336709
2308,27862514.394840268
2340,1789483.6842211656
2496,13887499.22130917
2683,13344306.163751977
2,1, 1, 1, 0,16,10.00,20.00,Sunday
11,404429287.0128959
23,361464404.5942024
895,28459098.817833924
2296,29075963.851932207
2308,27675247.129093309
2340,1802931.191599696
2496,13888918.566761349
2683,13344529.40062812
2,1, 1, 1, 0,16,20.00,30.00,Sunday
11,403065381.30841258
23,361464404.5942024
895,35962900.50888482
2296,27713263.420016119
2308,26298696.829774407
2340,1816162.1562875808
2496,13887713.294194028
2683,13342551.644853387
2,1, 1, 1, 0,16,30.00,40.00,Sunday
11,402697222.6287184
23,361464404.5942024
895,33690934.35165478
2296,27338357.160043159
2308,25907707.341205777
2340,1832921.8032731205
2496,13894460.874472879
2683,13347063.520936965
2,1, 1, 1, 0,16,40.00,50.00,Sunday
11,404859472.97417828
23,361611559.3430817
895,28776083.707801187
2296,29353323.496994888
2308,27900101.9907992
2340,1855625.3794054406
2496,13894590.134101706
2683,13344955.314163369
2,1, 1, 1, 0,16,50.00,60.00,Sunday
11,404459576.5284938
23,361695283.89048328
895,29088990.368359146
2296,28866811.95160856
2308,27385441.01737472
2340,1883606.70184734
2496,13897480.686402094
2683,13345373.327837514
2,1, 1, 1, 0,17, 0.00,10.00,Sunday
11,403395423.972494
23,361695283.89048328
895,58357136.138174179
2296,27802552.602249665
2308,26294343.84236193
2340,1911213.621751938
2496,13897587.479761133
2683,13342551.644853387
2,1, 1, 1, 0,17,10.00,20.00,Sunday
11,403065106.5167204
23,361714523.83184006
895,71331962.57103829
2296,27445607.99257507
2308,25912507.31136323
2340,1935540.5715848427
2496,13904974.692305364
2683,13348533.768994734
2,1, 1, 1, 0,17,20.00,30.00,Sunday
11,405129590.7401071
23,361926163.18676427
895,58793156.54562959
2296,29298344.30274038
2308,27738503.209659816
2340,1963158.0862400355
2496,13905083.25060254
2683,13345664.185805679
2,1, 1, 1, 0,17,30.00,40.00,Sunday
11,404954697.97711637
23,361926163.18676427
895,58976556.65898708
2296,29124071.41001423
2308,27538163.35480876
2340,1986290.5750762008
2496,13904463.380337924
2683,13345903.636086923
2,1, 1, 1, 0,17,40.00,50.00,Sunday
11,403578087.36991259
23,361926163.18676427
895,56488047.29401423
2296,27746885.583226649
2308,26146008.186
2340,2004060.3017186616
2496,13905038.59992176
2683,13342551.644853387
2,1, 1, 1, 0,17,50.00,60.00,Sunday
11,403734783.17496618
23,362304200.28332129
895,74139181.21092464
2296,27517961.870784314
2308,25914559.975964339
2340,2006945.2243014784
2496,13912621.020860631
2683,13349802.84023997
2,1, 1, 1, 0,18, 0.00,10.00,Sunday
11,405698432.877297
23,362618807.1784005
895,81761652.9630375
2296,29172703.128344414
2308,27573637.886175939
2340,2002312.2771721795
2496,13906922.570552068
2683,13346804.827339529
2,1, 1, 1, 0,18,10.00,20.00,Sunday
11,439509780.54706248
23,362849689.5260782
895,81964430.64024714
2296,28987787.158871898
2308,27401407.506635976
2340,1989374.2291994272
2496,13903883.86211244
2683,13347064.881806719
2,1, 1, 1, 0,18,20.00,30.00,Sunday
11,438008097.3686694
23,362849689.5260782
895,78602375.33797027
2296,27494671.626879179
2308,25938266.768902434
2340,1959749.9058113206
2496,13895316.215712019
2683,13342551.644853387
2,1, 1, 1, 0,18,30.00,40.00,Sunday
11,440086199.6878039
23,362849689.5260782
895,127424310.62413915
2296,29524629.55335643
2308,28004989.25518144
2340,1921870.4708354846
2496,13943460.60836928
2683,13396999.60081046
2,1, 1, 1, 0,18,40.00,50.00,Sunday
11,449564378.70285347
23,362849689.5260782
895,109447048.50525145
2296,39018736.93355901
2308,37532194.95169125
2340,1887385.564269055
2496,13927532.243216247
2683,13387408.120865424
2,1, 1, 1, 0,18,50.00,60.00,Sunday
11,449450887.3480331
23,362849689.5260782
895,96117055.94995672
2296,38928155.83615349
2308,37468870.19765794
2340,1862382.369141824
2496,13904621.985801489
2683,13366530.145992455
2,1, 1, 1, 0,19, 0.00,10.00,Sunday
11,437829066.77950546
23,362849689.5260782
895,78602375.33797027
2296,27332620.612675448
2308,25898318.46874473
2340,1837607.0446258037
2496,13878336.64075184
2683,13342551.644853387
2,1, 1, 1, 0,19,10.00,20.00,Sunday
11,448045943.8565289
23,362849689.5260782
895,127703900.60914462
2296,37500740.965733017
2308,36089068.18204577
2340,1813856.8933641928
2496,13927093.364717603
2683,13394725.461807494
2,1, 1, 1, 0,19,20.00,30.00,Sunday
11,449416852.53651729
23,362849689.5260782
895,103502181.01412548
2296,38891744.084494259
2308,37498173.36347091
2340,1796323.9631530448
2496,13906998.92594479
2683,13375982.066513915
2,1, 1, 1, 0,19,30.00,40.00,Sunday
11,449357207.45105
23,362849689.5260782
895,104199372.86413402
2296,38836153.601100269
2308,37456745.35652065
2340,1779517.8668613863
2496,13902944.323871473
2683,13376140.881210274
2,1, 1, 1, 0,19,40.00,50.00,Sunday
11,437752423.8426877
23,362849689.5260782
895,78602375.33797027
2296,27264050.049102498
2308,25898318.46874473
2340,1768245.0317228297
2496,13870264.267507052
2683,13342551.644853387
2,1, 1, 1, 0,19,50.00,60.00,Sunday
11,448004284.52507606
23,362849689.5260782
895,141290318.51694513
2296,37446563.5739003
2308,36093941.11512172
2340,1755753.9017160042
2496,13939611.425097544
2683,13412721.138322384
2,1, 1, 1, 0,20, 0.00,10.00,Sunday
11,449346934.3716438
23,362849689.5260782
895,95517511.49041325
2296,38820506.77059323
2308,37478043.74340947
2340,1745465.983196583
2496,13908318.074972345
2683,13383852.487347272
2,1, 1, 1, 0,20,10.00,20.00,Sunday
11,449314275.606939
23,362849689.5260782
895,95484721.96401017
2296,38791744.952374149
2308,37456745.35652065
2340,1737077.4017478806
2496,13904421.128486714
2683,13382876.553845209
2,1, 1, 1, 0,20,20.00,30.00,Sunday
11,437706402.1547927
23,362849689.5260782
895,63859489.97533291
2296,27225457.436987159
2308,25898318.46874473
2340,1729893.7968812732
2496,13862835.191727324
2683,13342551.644853387
2,1, 1, 1, 0,20,30.00,40.00,Sunday
11,447981626.34584328
23,362849689.5260782
895,135399426.8426118
2296,37421888.44899832
2308,36103085.632487568
2340,1721054.539870001
2496,13941628.370766812
2683,13423758.816015466
2,1, 1, 1, 0,20,40.00,50.00,Sunday
11,449285946.9810297
23,362849689.5260782
895,94499819.27072689
2296,38769237.057288769
2308,37456745.35652065
2340,1715687.4077721879
2496,13898600.397662735
2683,13381499.098160016
2,1, 1, 1, 0,20,50.00,60.00,Sunday
11,449285805.81459829
23,362849689.5260782
895,99649647.70430812
2296,38765145.63041669
2308,37456745.35652065
2340,1711249.606612431
2496,13902550.658103319
2683,13387278.910962826
2,1, 1, 1, 0,21, 0.00,10.00,Sunday
11,437677165.37613317
23,362849689.5260782
895,63859489.97533291
2296,27201927.18917628
2308,25898318.46874473
2340,1706275.555749102
2496,13857128.660878633
2683,13342551.644853387
2,1, 1, 1, 0,21,10.00,20.00,Sunday
11,447981411.5019605
23,362849689.5260782
895,142634183.23317046
2296,37415943.78570486
2308,36118359.99639338
2340,1700759.0255712323
2496,13947358.190177381
2683,13432875.356394537
2,1, 1, 1, 0,21,20.00,30.00,Sunday
11,449268698.28031226
23,362849689.5260782
895,99560073.64734292
2296,38749845.058800768
2308,37456745.35652065
2340,1695622.0089106307
2496,13900743.695433347
2683,13387420.299861957
2,1, 1, 1, 0,21,30.00,40.00,Sunday
11,449273432.66446158
23,362849689.5260782
895,105936062.83215893
2296,38747355.70316806
2308,37456745.35652065
2340,1693480.347158505
2496,13907967.435215276
2683,13394649.721492993
2,1, 1, 1, 0,21,40.00,50.00,Sunday
11,437657969.1548275
23,362849689.5260782
895,63859489.97533291
2296,27185647.016169825
2308,25898318.46874473
2340,1688936.105961367
2496,13854212.612579339
2683,13342551.644853387
2,1, 1, 1, 0,21,50.00,60.00,Sunday
11,448290942.344848
23,362849689.5260782
895,196037388.77549113
2296,37631668.97073047
2308,36349053.51198149
2340,1683812.1042139834
2496,14041163.8480393
2683,13530411.479333692
2,1, 1, 1, 0,22, 0.00,10.00,Sunday
11,449261777.5518465
23,362849689.5260782
895,88879867.74424067
2296,38735902.72107109
2308,37456745.35652065
2340,1681769.0378777227
2496,13907765.304697276
2683,13396696.826385299
2,1, 1, 1, 0,22,10.00,20.00,Sunday
11,449273506.2123606
23,362849689.5260782
895,99864731.94838728
2296,38734392.584252569
2308,37456745.35652065
2340,1680597.387518492
2496,13921004.102029905
2683,13410527.816337564
2,1, 1, 1, 0,22,20.00,30.00,Sunday
11,437642743.3231007
23,362849689.5260782
895,61843377.96589376
2296,27173616.261467279
2308,25898318.46874473
2340,1677190.9075220973
2496,13851017.535555199
2683,13342551.644853387
2,1, 1, 1, 0,22,30.00,40.00,Sunday
11,448517226.62600979
23,362849689.5260782
895,203666696.3938043
2296,37777343.31192848
2308,36506241.29772804
2340,1673353.7775205416
2496,14121773.788003108
2683,13614005.384412479
2,1, 1, 1, 0,22,40.00,50.00,Sunday
11,449285239.4180225
23,362849689.5260782
895,109050528.75890875
2296,38735641.42297747
2308,37467970.34821126
2340,1670362.7819255184
2496,13931488.468966842
2683,13424278.070141543
2,1, 1, 1, 0,22,50.00,60.00,Sunday
11,449300224.54549559
23,362849689.5260782
895,125200643.83134207
2296,38727552.26021879
2308,37461274.990011569
2340,1669197.2799396574
2496,13954562.759198633
2683,13447960.422601166
2,1, 1, 1, 0,23, 0.00,10.00,Sunday
11,437629951.44092288
23,362849689.5260782
895,34373719.25005819
2296,27162543.519828503
2308,25898318.46874473